<?xml version="1.0" encoding="UTF-8"?>

<!-- generated on 2025-10-08 18:33:04 by Eclipse SUMO sumo Version 1.24.0
This data file and the accompanying materials
are made available under the terms of the Eclipse Public License v2.0
which accompanies this distribution, and is available at
http://www.eclipse.org/legal/epl-v20.html
This file may also be made available under the following Secondary
Licenses when the conditions for such availability set forth in the Eclipse
Public License 2.0 are satisfied: GNU General Public License, version 2
or later which is available at
https://www.gnu.org/licenses/old-licenses/gpl-2.0-standalone.html
SPDX-License-Identifier: EPL-2.0 OR GPL-2.0-or-later
<sumoConfiguration xmlns:xsi="http://www.w3.org/2001/XMLSchema-instance" xsi:noNamespaceSchemaLocation="http://sumo.dlr.de/xsd/sumoConfiguration.xsd">

    <input>
        <net-file value=".\naunhof.net.xml"/>
        <route-files value=".\naunhof.pt.rou.xml,.\ naunhof.persons.rou.xml"/>
        <additional-files value=".\naunhof.bus.add.xml"/>
    </input>

    <output>
        <write-license value="true"/>
        <tripinfo-output value=".\tripInfosRouteExtension.xml"/>
        <tripinfo-output.write-unfinished value="true"/>
    </output>

    <time>
        <begin value="0"/>
        <end value="4200"/>
    </time>

    <taxi_device>
        <device.taxi.dispatch-algorithm value="routeExtension"/>
        <device.taxi.dispatch-algorithm.output value=".\dispatchInfosRouteExtension.xml"/>
        <device.taxi.idle-algorithm value="stop"/>
    </taxi_device>

</sumoConfiguration>
-->

<tripinfos xmlns:xsi="http://www.w3.org/2001/XMLSchema-instance" xsi:noNamespaceSchemaLocation="http://sumo.dlr.de/xsd/tripinfo_file.xsd">
    <personinfo id="p1" depart="3.00" type="DEFAULT_PEDTYPE" speedFactor="1.18" duration="280.00" waitingTime="82.00" timeLoss="26.17" traveltime="198.00">
        <ride waitingTime="82.00" vehicle="t11" depart="85.00" arrival="283.00" arrivalPos="192.98" duration="198.00" routeLength="1711.45" timeLoss="26.17"/>
    </personinfo>
    <personinfo id="p16" depart="84.00" type="DEFAULT_PEDTYPE" speedFactor="1.09" duration="213.00" waitingTime="62.00" timeLoss="18.81" traveltime="151.00">
        <ride waitingTime="62.00" vehicle="t7" depart="146.00" arrival="297.00" arrivalPos="192.98" duration="151.00" routeLength="1016.92" timeLoss="18.81"/>
    </personinfo>
    <personinfo id="p5" depart="35.00" type="DEFAULT_PEDTYPE" speedFactor="0.99" duration="269.00" waitingTime="51.00" timeLoss="26.07" traveltime="218.00">
        <ride waitingTime="51.00" vehicle="t8" depart="86.00" arrival="304.00" arrivalPos="192.98" duration="218.00" routeLength="1870.58" timeLoss="26.07"/>
    </personinfo>
    <personinfo id="p13" depart="75.00" type="DEFAULT_PEDTYPE" speedFactor="1.09" duration="263.00" waitingTime="70.00" timeLoss="21.63" traveltime="193.00">
        <ride waitingTime="70.00" vehicle="t17" depart="145.00" arrival="338.00" arrivalPos="192.98" duration="193.00" routeLength="1418.23" timeLoss="21.63"/>
    </personinfo>
    <personinfo id="p2" depart="4.00" type="DEFAULT_PEDTYPE" speedFactor="1.15" duration="355.00" waitingTime="119.00" timeLoss="33.37" traveltime="236.00">
        <ride waitingTime="119.00" vehicle="t20" depart="123.00" arrival="359.00" arrivalPos="192.98" duration="236.00" routeLength="2082.88" timeLoss="33.37"/>
    </personinfo>
    <personinfo id="p9" depart="61.00" type="DEFAULT_PEDTYPE" speedFactor="1.10" duration="311.00" waitingTime="132.00" timeLoss="22.62" traveltime="179.00">
        <ride waitingTime="132.00" vehicle="t28" depart="193.00" arrival="372.00" arrivalPos="192.98" duration="179.00" routeLength="1165.83" timeLoss="22.62"/>
    </personinfo>
    <personinfo id="p12" depart="67.00" type="DEFAULT_PEDTYPE" speedFactor="0.96" duration="319.00" waitingTime="141.00" timeLoss="23.58" traveltime="178.00">
        <ride waitingTime="141.00" vehicle="t4" depart="208.00" arrival="386.00" arrivalPos="192.98" duration="178.00" routeLength="1174.97" timeLoss="23.58"/>
    </personinfo>
    <personinfo id="p15" depart="79.00" type="DEFAULT_PEDTYPE" speedFactor="1.04" duration="308.00" waitingTime="129.00" timeLoss="23.58" traveltime="179.00">
        <ride waitingTime="129.00" vehicle="t4" depart="208.00" arrival="387.00" arrivalPos="192.98" duration="179.00" routeLength="1174.97" timeLoss="23.58"/>
    </personinfo>
    <personinfo id="p18" depart="104.00" type="DEFAULT_PEDTYPE" speedFactor="0.90" duration="297.00" waitingTime="40.00" timeLoss="27.59" traveltime="257.00">
        <ride waitingTime="40.00" vehicle="t2" depart="144.00" arrival="401.00" arrivalPos="192.98" duration="257.00" routeLength="2782.40" timeLoss="27.59"/>
    </personinfo>
    <personinfo id="p22" depart="129.00" type="DEFAULT_PEDTYPE" speedFactor="1.17" duration="278.00" waitingTime="142.00" timeLoss="15.07" traveltime="136.00">
        <ride waitingTime="142.00" vehicle="t26" depart="271.00" arrival="407.00" arrivalPos="192.98" duration="136.00" routeLength="764.06" timeLoss="15.07"/>
    </personinfo>
    <personinfo id="p27" depart="151.00" type="DEFAULT_PEDTYPE" speedFactor="0.90" duration="263.00" waitingTime="96.00" timeLoss="26.96" traveltime="167.00">
        <ride waitingTime="96.00" vehicle="t19" depart="247.00" arrival="414.00" arrivalPos="192.98" duration="167.00" routeLength="1039.95" timeLoss="26.96"/>
    </personinfo>
    <personinfo id="p3" depart="4.00" type="DEFAULT_PEDTYPE" speedFactor="1.01" duration="431.00" waitingTime="113.00" timeLoss="28.17" traveltime="318.00">
        <ride waitingTime="113.00" vehicle="t13" depart="117.00" arrival="435.00" arrivalPos="192.98" duration="318.00" routeLength="3227.01" timeLoss="28.17"/>
    </personinfo>
    <personinfo id="p6" depart="39.00" type="DEFAULT_PEDTYPE" speedFactor="1.02" duration="397.00" waitingTime="78.00" timeLoss="28.17" traveltime="319.00">
        <ride waitingTime="78.00" vehicle="t13" depart="117.00" arrival="436.00" arrivalPos="192.98" duration="319.00" routeLength="3227.01" timeLoss="28.17"/>
    </personinfo>
    <personinfo id="p8" depart="54.00" type="DEFAULT_PEDTYPE" speedFactor="1.18" duration="405.00" waitingTime="31.00" timeLoss="37.91" traveltime="374.00">
        <ride waitingTime="31.00" vehicle="t24" depart="85.00" arrival="459.00" arrivalPos="192.98" duration="374.00" routeLength="3889.56" timeLoss="37.91"/>
    </personinfo>
    <personinfo id="p26" depart="147.00" type="DEFAULT_PEDTYPE" speedFactor="1.00" duration="328.00" waitingTime="58.00" timeLoss="29.76" traveltime="270.00">
        <ride waitingTime="58.00" vehicle="t27" depart="205.00" arrival="475.00" arrivalPos="192.98" duration="270.00" routeLength="2481.92" timeLoss="29.76"/>
    </personinfo>
    <personinfo id="p10" depart="61.00" type="DEFAULT_PEDTYPE" speedFactor="0.90" duration="431.00" waitingTime="85.00" timeLoss="37.99" traveltime="346.00">
        <ride waitingTime="85.00" vehicle="t30" depart="146.00" arrival="492.00" arrivalPos="192.98" duration="346.00" routeLength="4656.90" timeLoss="37.99"/>
    </personinfo>
    <personinfo id="p7" depart="50.00" type="DEFAULT_PEDTYPE" speedFactor="0.97" duration="451.00" waitingTime="36.00" timeLoss="68.56" traveltime="415.00">
        <ride waitingTime="36.00" vehicle="t25" depart="86.00" arrival="501.00" arrivalPos="192.98" duration="415.00" routeLength="2390.57" timeLoss="68.56"/>
    </personinfo>
    <personinfo id="p29" depart="158.00" type="DEFAULT_PEDTYPE" speedFactor="1.02" duration="362.00" waitingTime="135.00" timeLoss="29.67" traveltime="227.00">
        <ride waitingTime="135.00" vehicle="t29" depart="293.00" arrival="520.00" arrivalPos="192.98" duration="227.00" routeLength="1665.77" timeLoss="29.67"/>
    </personinfo>
    <personinfo id="p11" depart="66.00" type="DEFAULT_PEDTYPE" speedFactor="1.03" duration="480.00" waitingTime="129.00" timeLoss="36.10" traveltime="351.00">
        <ride waitingTime="129.00" vehicle="t10" depart="195.00" arrival="546.00" arrivalPos="192.98" duration="351.00" routeLength="3312.89" timeLoss="36.10"/>
    </personinfo>
    <personinfo id="p17" depart="104.00" type="DEFAULT_PEDTYPE" speedFactor="1.00" duration="443.00" waitingTime="327.00" timeLoss="14.83" traveltime="116.00">
        <ride waitingTime="327.00" vehicle="t10" depart="431.00" arrival="547.00" arrivalPos="192.98" duration="116.00" routeLength="513.17" timeLoss="14.83"/>
    </personinfo>
    <personinfo id="p21" depart="128.00" type="DEFAULT_PEDTYPE" speedFactor="0.85" duration="443.00" waitingTime="79.00" timeLoss="61.00" traveltime="364.00">
        <ride waitingTime="79.00" vehicle="t9" depart="207.00" arrival="571.00" arrivalPos="192.98" duration="364.00" routeLength="1945.52" timeLoss="61.00"/>
    </personinfo>
    <personinfo id="p23" depart="137.00" type="DEFAULT_PEDTYPE" speedFactor="1.02" duration="440.00" waitingTime="231.00" timeLoss="34.49" traveltime="209.00">
        <ride waitingTime="231.00" vehicle="t3" depart="368.00" arrival="577.00" arrivalPos="192.98" duration="209.00" routeLength="1472.63" timeLoss="34.49"/>
    </personinfo>
    <personinfo id="p14" depart="78.00" type="DEFAULT_PEDTYPE" speedFactor="1.04" duration="509.00" waitingTime="206.00" timeLoss="38.59" traveltime="303.00">
        <ride waitingTime="206.00" vehicle="t14" depart="284.00" arrival="587.00" arrivalPos="192.98" duration="303.00" routeLength="2881.52" timeLoss="38.59"/>
    </personinfo>
    <personinfo id="p19" depart="109.00" type="DEFAULT_PEDTYPE" speedFactor="0.88" duration="479.00" waitingTime="235.00" timeLoss="33.12" traveltime="244.00">
        <ride waitingTime="235.00" vehicle="t14" depart="344.00" arrival="588.00" arrivalPos="192.98" duration="244.00" routeLength="2576.11" timeLoss="33.12"/>
    </personinfo>
    <personinfo id="p4" depart="11.00" type="DEFAULT_PEDTYPE" speedFactor="1.17" duration="584.00" waitingTime="159.00" timeLoss="45.26" traveltime="425.00">
        <ride waitingTime="159.00" vehicle="t22" depart="170.00" arrival="595.00" arrivalPos="192.98" duration="425.00" routeLength="5029.58" timeLoss="45.26"/>
    </personinfo>
    <personinfo id="p30" depart="158.00" type="DEFAULT_PEDTYPE" speedFactor="0.97" duration="446.00" waitingTime="231.00" timeLoss="36.99" traveltime="215.00">
        <ride waitingTime="231.00" vehicle="t23" depart="389.00" arrival="604.00" arrivalPos="192.98" duration="215.00" routeLength="1594.98" timeLoss="36.99"/>
    </personinfo>
    <tripinfo id="train1.0" depart="500.00" departLane="374359231_0" departPos="50.10" departSpeed="0.00" departDelay="0.00" arrival="605.00" arrivalLane="374605592#0_0" arrivalPos="22.39" arrivalSpeed="16.67" duration="105.00" routeLength="427.92" waitingTime="0.00" waitingCount="0" stopTime="60.00" timeLoss="20.24" rerouteNo="0" devices="tripinfo_train1.0" vType="TrainSumo" speedFactor="1.00" vaporized=""/>
    <personinfo id="p28" depart="154.00" type="DEFAULT_PEDTYPE" speedFactor="1.14" duration="472.00" waitingTime="96.00" timeLoss="43.71" traveltime="376.00">
        <ride waitingTime="96.00" vehicle="t5" depart="250.00" arrival="626.00" arrivalPos="192.98" duration="376.00" routeLength="4074.25" timeLoss="43.71"/>
    </personinfo>
    <personinfo id="p24" depart="137.00" type="DEFAULT_PEDTYPE" speedFactor="1.10" duration="490.00" waitingTime="182.00" timeLoss="31.90" traveltime="308.00">
        <ride waitingTime="182.00" vehicle="t5" depart="319.00" arrival="627.00" arrivalPos="192.98" duration="308.00" routeLength="3312.88" timeLoss="31.90"/>
    </personinfo>
    <personinfo id="p20" depart="114.00" type="DEFAULT_PEDTYPE" speedFactor="0.85" duration="523.00" waitingTime="196.00" timeLoss="59.04" traveltime="327.00">
        <ride waitingTime="196.00" vehicle="t16" depart="310.00" arrival="637.00" arrivalPos="192.98" duration="327.00" routeLength="1622.93" timeLoss="59.04"/>
    </personinfo>
    <personinfo id="p25" depart="143.00" type="DEFAULT_PEDTYPE" speedFactor="1.00" duration="500.00" waitingTime="251.00" timeLoss="34.79" traveltime="249.00">
        <ride waitingTime="251.00" vehicle="t15" depart="394.00" arrival="643.00" arrivalPos="192.98" duration="249.00" routeLength="2082.91" timeLoss="34.79"/>
    </personinfo>
    <personinfo id="p32" depart="175.00" type="DEFAULT_PEDTYPE" speedFactor="1.12" duration="476.00" waitingTime="260.00" timeLoss="33.33" traveltime="216.00">
        <ride waitingTime="260.00" vehicle="t21" depart="435.00" arrival="651.00" arrivalPos="192.98" duration="216.00" routeLength="1700.28" timeLoss="33.33"/>
    </personinfo>
    <personinfo id="p40" depart="198.00" type="DEFAULT_PEDTYPE" speedFactor="1.02" duration="462.00" waitingTime="296.00" timeLoss="27.30" traveltime="166.00">
        <ride waitingTime="296.00" vehicle="t17" depart="494.00" arrival="660.00" arrivalPos="192.98" duration="166.00" routeLength="1194.60" timeLoss="27.30"/>
    </personinfo>
    <personinfo id="p44" depart="225.00" type="DEFAULT_PEDTYPE" speedFactor="1.06" duration="436.00" waitingTime="269.00" timeLoss="27.30" traveltime="167.00">
        <ride waitingTime="269.00" vehicle="t17" depart="494.00" arrival="661.00" arrivalPos="192.98" duration="167.00" routeLength="1194.60" timeLoss="27.30"/>
    </personinfo>
    <personinfo id="p34" depart="178.00" type="DEFAULT_PEDTYPE" speedFactor="0.99" duration="492.00" waitingTime="330.00" timeLoss="34.44" traveltime="162.00">
        <ride waitingTime="330.00" vehicle="t12" depart="508.00" arrival="670.00" arrivalPos="192.98" duration="162.00" routeLength="965.19" timeLoss="34.44"/>
    </personinfo>
    <personinfo id="p36" depart="187.00" type="DEFAULT_PEDTYPE" speedFactor="0.88" duration="492.00" waitingTime="275.00" timeLoss="45.11" traveltime="217.00">
        <ride waitingTime="275.00" vehicle="t11" depart="462.00" arrival="679.00" arrivalPos="192.98" duration="217.00" routeLength="1711.38" timeLoss="45.11"/>
    </personinfo>
    <personinfo id="p45" depart="231.00" type="DEFAULT_PEDTYPE" speedFactor="0.96" duration="462.00" waitingTime="304.00" timeLoss="21.78" traveltime="158.00">
        <ride waitingTime="304.00" vehicle="t19" depart="535.00" arrival="693.00" arrivalPos="192.98" duration="158.00" routeLength="1016.90" timeLoss="21.78"/>
    </personinfo>
    <personinfo id="p31" depart="165.00" type="DEFAULT_PEDTYPE" speedFactor="1.08" duration="541.00" waitingTime="207.00" timeLoss="32.01" traveltime="334.00">
        <ride waitingTime="207.00" vehicle="t18" depart="372.00" arrival="706.00" arrivalPos="192.98" duration="334.00" routeLength="3226.97" timeLoss="32.01"/>
    </personinfo>
    <personinfo id="p51" depart="275.00" type="DEFAULT_PEDTYPE" speedFactor="1.03" duration="446.00" waitingTime="314.00" timeLoss="18.51" traveltime="132.00">
        <ride waitingTime="314.00" vehicle="t24" depart="589.00" arrival="721.00" arrivalPos="192.98" duration="132.00" routeLength="688.04" timeLoss="18.51"/>
    </personinfo>
    <personinfo id="p76" depart="424.00" type="DEFAULT_PEDTYPE" speedFactor="1.07" duration="298.00" waitingTime="165.00" timeLoss="18.51" traveltime="133.00">
        <ride waitingTime="165.00" vehicle="t24" depart="589.00" arrival="722.00" arrivalPos="192.98" duration="133.00" routeLength="688.04" timeLoss="18.51"/>
    </personinfo>
    <personinfo id="p47" depart="238.00" type="DEFAULT_PEDTYPE" speedFactor="1.03" duration="491.00" waitingTime="302.00" timeLoss="23.67" traveltime="189.00">
        <ride waitingTime="302.00" vehicle="t26" depart="540.00" arrival="729.00" arrivalPos="192.98" duration="189.00" routeLength="1174.97" timeLoss="23.67"/>
    </personinfo>
    <personinfo id="p60" depart="318.00" type="DEFAULT_PEDTYPE" speedFactor="1.02" duration="412.00" waitingTime="222.00" timeLoss="23.67" traveltime="190.00">
        <ride waitingTime="222.00" vehicle="t26" depart="540.00" arrival="730.00" arrivalPos="192.98" duration="190.00" routeLength="1174.97" timeLoss="23.67"/>
    </personinfo>
    <personinfo id="p39" depart="198.00" type="DEFAULT_PEDTYPE" speedFactor="1.04" duration="539.00" waitingTime="291.00" timeLoss="32.32" traveltime="248.00">
        <ride waitingTime="291.00" vehicle="t8" depart="489.00" arrival="737.00" arrivalPos="192.98" duration="248.00" routeLength="1665.79" timeLoss="32.32"/>
    </personinfo>
    <personinfo id="p52" depart="276.00" type="DEFAULT_PEDTYPE" speedFactor="1.00" duration="462.00" waitingTime="213.00" timeLoss="32.32" traveltime="249.00">
        <ride waitingTime="213.00" vehicle="t8" depart="489.00" arrival="738.00" arrivalPos="192.98" duration="249.00" routeLength="1665.79" timeLoss="32.32"/>
    </personinfo>
    <personinfo id="p64" depart="329.00" type="DEFAULT_PEDTYPE" speedFactor="0.92" duration="409.00" waitingTime="160.00" timeLoss="32.32" traveltime="249.00">
        <ride waitingTime="160.00" vehicle="t8" depart="489.00" arrival="738.00" arrivalPos="192.98" duration="249.00" routeLength="1665.79" timeLoss="32.32"/>
    </personinfo>
    <personinfo id="p54" depart="296.00" type="DEFAULT_PEDTYPE" speedFactor="0.97" duration="470.00" waitingTime="336.00" timeLoss="20.96" traveltime="134.00">
        <ride waitingTime="336.00" vehicle="t29" depart="632.00" arrival="766.00" arrivalPos="192.98" duration="134.00" routeLength="764.07" timeLoss="20.96"/>
    </personinfo>
    <personinfo id="p55" depart="307.00" type="DEFAULT_PEDTYPE" speedFactor="1.15" duration="460.00" waitingTime="325.00" timeLoss="20.96" traveltime="135.00">
        <ride waitingTime="325.00" vehicle="t29" depart="632.00" arrival="767.00" arrivalPos="192.98" duration="135.00" routeLength="764.07" timeLoss="20.96"/>
    </personinfo>
    <personinfo id="p42" depart="216.00" type="DEFAULT_PEDTYPE" speedFactor="0.97" duration="573.00" waitingTime="387.00" timeLoss="18.83" traveltime="186.00">
        <ride waitingTime="387.00" vehicle="t28" depart="603.00" arrival="789.00" arrivalPos="192.98" duration="186.00" routeLength="1418.21" timeLoss="18.83"/>
    </personinfo>
    <personinfo id="p33" depart="176.00" type="DEFAULT_PEDTYPE" speedFactor="1.02" duration="640.00" waitingTime="362.00" timeLoss="28.19" traveltime="278.00">
        <ride waitingTime="362.00" vehicle="t1" depart="538.00" arrival="816.00" arrivalPos="192.98" duration="278.00" routeLength="2881.53" timeLoss="28.19"/>
    </personinfo>
    <personinfo id="p57" depart="308.00" type="DEFAULT_PEDTYPE" speedFactor="1.00" duration="518.00" waitingTime="357.00" timeLoss="19.64" traveltime="161.00">
        <ride waitingTime="357.00" vehicle="t25" depart="665.00" arrival="826.00" arrivalPos="192.98" duration="161.00" routeLength="1025.20" timeLoss="19.64"/>
    </personinfo>
    <personinfo id="p38" depart="198.00" type="DEFAULT_PEDTYPE" speedFactor="0.91" duration="661.00" waitingTime="391.00" timeLoss="28.74" traveltime="270.00">
        <ride waitingTime="391.00" vehicle="t20" depart="589.00" arrival="859.00" arrivalPos="192.98" duration="270.00" routeLength="2881.51" timeLoss="28.74"/>
    </personinfo>
    <personinfo id="p62" depart="320.00" type="DEFAULT_PEDTYPE" speedFactor="0.89" duration="555.00" waitingTime="395.00" timeLoss="19.63" traveltime="160.00">
        <ride waitingTime="395.00" vehicle="t9" depart="715.00" arrival="875.00" arrivalPos="192.98" duration="160.00" routeLength="1040.01" timeLoss="19.63"/>
    </personinfo>
    <personinfo id="p50" depart="274.00" type="DEFAULT_PEDTYPE" speedFactor="1.09" duration="609.00" waitingTime="354.00" timeLoss="34.33" traveltime="255.00">
        <ride waitingTime="354.00" vehicle="t27" depart="628.00" arrival="883.00" arrivalPos="192.98" duration="255.00" routeLength="2082.89" timeLoss="34.33"/>
    </personinfo>
    <personinfo id="p68" depart="360.00" type="DEFAULT_PEDTYPE" speedFactor="0.91" duration="524.00" waitingTime="268.00" timeLoss="34.33" traveltime="256.00">
        <ride waitingTime="268.00" vehicle="t27" depart="628.00" arrival="884.00" arrivalPos="192.98" duration="256.00" routeLength="2082.89" timeLoss="34.33"/>
    </personinfo>
    <personinfo id="p41" depart="201.00" type="DEFAULT_PEDTYPE" speedFactor="1.02" duration="698.00" waitingTime="447.00" timeLoss="26.18" traveltime="251.00">
        <ride waitingTime="447.00" vehicle="t4" depart="648.00" arrival="899.00" arrivalPos="192.98" duration="251.00" routeLength="2889.32" timeLoss="26.18"/>
    </personinfo>
    <personinfo id="p74" depart="421.00" type="DEFAULT_PEDTYPE" speedFactor="0.95" duration="502.00" waitingTime="324.00" timeLoss="21.01" traveltime="178.00">
        <ride waitingTime="324.00" vehicle="t16" depart="745.00" arrival="923.00" arrivalPos="192.98" duration="178.00" routeLength="1165.82" timeLoss="21.01"/>
    </personinfo>
    <personinfo id="p73" depart="416.00" type="DEFAULT_PEDTYPE" speedFactor="0.97" duration="543.00" waitingTime="400.00" timeLoss="18.87" traveltime="143.00">
        <ride waitingTime="400.00" vehicle="t23" depart="816.00" arrival="959.00" arrivalPos="192.98" duration="143.00" routeLength="866.84" timeLoss="18.87"/>
    </personinfo>
    <personinfo id="p58" depart="310.00" type="DEFAULT_PEDTYPE" speedFactor="1.04" duration="656.00" waitingTime="433.00" timeLoss="34.98" traveltime="223.00">
        <ride waitingTime="433.00" vehicle="t14" depart="743.00" arrival="966.00" arrivalPos="192.98" duration="223.00" routeLength="1003.46" timeLoss="34.98"/>
    </personinfo>
    <personinfo id="p93" depart="552.00" type="DEFAULT_PEDTYPE" speedFactor="1.03" duration="415.00" waitingTime="191.00" timeLoss="34.98" traveltime="224.00">
        <ride waitingTime="191.00" vehicle="t14" depart="743.00" arrival="967.00" arrivalPos="192.98" duration="224.00" routeLength="1003.46" timeLoss="34.98"/>
    </personinfo>
    <personinfo id="p77" depart="425.00" type="DEFAULT_PEDTYPE" speedFactor="1.01" duration="550.00" waitingTime="402.00" timeLoss="22.80" traveltime="148.00">
        <ride waitingTime="402.00" vehicle="t11" depart="827.00" arrival="975.00" arrivalPos="192.98" duration="148.00" routeLength="948.36" timeLoss="22.80"/>
    </personinfo>
    <personinfo id="p83" depart="480.00" type="DEFAULT_PEDTYPE" speedFactor="1.10" duration="533.00" waitingTime="354.00" timeLoss="25.78" traveltime="179.00">
        <ride waitingTime="354.00" vehicle="t17" depart="834.00" arrival="1013.00" arrivalPos="192.98" duration="179.00" routeLength="965.24" timeLoss="25.78"/>
    </personinfo>
    <personinfo id="p112" depart="718.00" type="DEFAULT_PEDTYPE" speedFactor="1.16" duration="296.00" waitingTime="183.00" timeLoss="12.27" traveltime="113.00">
        <ride waitingTime="183.00" vehicle="t17" depart="901.00" arrival="1014.00" arrivalPos="192.98" duration="113.00" routeLength="513.17" timeLoss="12.27"/>
    </personinfo>
    <personinfo id="p86" depart="499.00" type="DEFAULT_PEDTYPE" speedFactor="0.92" duration="539.00" waitingTime="379.00" timeLoss="21.49" traveltime="160.00">
        <ride waitingTime="379.00" vehicle="t24" depart="878.00" arrival="1038.00" arrivalPos="192.98" duration="160.00" routeLength="1016.88" timeLoss="21.49"/>
    </personinfo>
    <personinfo id="p118" depart="742.00" type="DEFAULT_PEDTYPE" speedFactor="1.00" duration="297.00" waitingTime="136.00" timeLoss="21.49" traveltime="161.00">
        <ride waitingTime="136.00" vehicle="t24" depart="878.00" arrival="1039.00" arrivalPos="192.98" duration="161.00" routeLength="1016.88" timeLoss="21.49"/>
    </personinfo>
    <personinfo id="p61" depart="318.00" type="DEFAULT_PEDTYPE" speedFactor="1.02" duration="728.00" waitingTime="521.00" timeLoss="31.88" traveltime="207.00">
        <ride waitingTime="521.00" vehicle="t22" depart="839.00" arrival="1046.00" arrivalPos="192.98" duration="207.00" routeLength="1472.59" timeLoss="31.88"/>
    </personinfo>
    <personinfo id="p71" depart="381.00" type="DEFAULT_PEDTYPE" speedFactor="1.06" duration="666.00" waitingTime="458.00" timeLoss="31.88" traveltime="208.00">
        <ride waitingTime="458.00" vehicle="t22" depart="839.00" arrival="1047.00" arrivalPos="192.98" duration="208.00" routeLength="1472.59" timeLoss="31.88"/>
    </personinfo>
    <personinfo id="p84" depart="487.00" type="DEFAULT_PEDTYPE" speedFactor="1.01" duration="560.00" waitingTime="352.00" timeLoss="31.88" traveltime="208.00">
        <ride waitingTime="352.00" vehicle="t22" depart="839.00" arrival="1047.00" arrivalPos="192.98" duration="208.00" routeLength="1472.59" timeLoss="31.88"/>
    </personinfo>
    <personinfo id="p43" depart="219.00" type="DEFAULT_PEDTYPE" speedFactor="0.94" duration="836.00" waitingTime="466.00" timeLoss="67.24" traveltime="370.00">
        <ride waitingTime="466.00" vehicle="t2" depart="685.00" arrival="1055.00" arrivalPos="192.98" duration="370.00" routeLength="1945.54" timeLoss="67.24"/>
    </personinfo>
    <personinfo id="p92" depart="547.00" type="DEFAULT_PEDTYPE" speedFactor="1.10" duration="516.00" waitingTime="379.00" timeLoss="27.32" traveltime="137.00">
        <ride waitingTime="379.00" vehicle="t1" depart="926.00" arrival="1063.00" arrivalPos="192.98" duration="137.00" routeLength="688.02" timeLoss="27.32"/>
    </personinfo>
    <personinfo id="p94" depart="553.00" type="DEFAULT_PEDTYPE" speedFactor="1.02" duration="511.00" waitingTime="373.00" timeLoss="27.32" traveltime="138.00">
        <ride waitingTime="373.00" vehicle="t1" depart="926.00" arrival="1064.00" arrivalPos="192.98" duration="138.00" routeLength="688.02" timeLoss="27.32"/>
    </personinfo>
    <personinfo id="p109" depart="706.00" type="DEFAULT_PEDTYPE" speedFactor="1.00" duration="358.00" waitingTime="220.00" timeLoss="27.32" traveltime="138.00">
        <ride waitingTime="220.00" vehicle="t1" depart="926.00" arrival="1064.00" arrivalPos="192.98" duration="138.00" routeLength="688.02" timeLoss="27.32"/>
    </personinfo>
    <personinfo id="p89" depart="522.00" type="DEFAULT_PEDTYPE" speedFactor="0.99" duration="550.00" waitingTime="380.00" timeLoss="31.26" traveltime="170.00">
        <ride waitingTime="380.00" vehicle="t8" depart="902.00" arrival="1072.00" arrivalPos="192.98" duration="170.00" routeLength="1194.66" timeLoss="31.26"/>
    </personinfo>
    <personinfo id="p97" depart="610.00" type="DEFAULT_PEDTYPE" speedFactor="1.03" duration="463.00" waitingTime="292.00" timeLoss="31.26" traveltime="171.00">
        <ride waitingTime="292.00" vehicle="t8" depart="902.00" arrival="1073.00" arrivalPos="192.98" duration="171.00" routeLength="1194.66" timeLoss="31.26"/>
    </personinfo>
    <personinfo id="p59" depart="311.00" type="DEFAULT_PEDTYPE" speedFactor="1.01" duration="768.00" waitingTime="497.00" timeLoss="39.43" traveltime="271.00">
        <ride waitingTime="497.00" vehicle="t3" depart="808.00" arrival="1079.00" arrivalPos="192.98" duration="271.00" routeLength="2481.93" timeLoss="39.43"/>
    </personinfo>
    <personinfo id="p69" depart="375.00" type="DEFAULT_PEDTYPE" speedFactor="1.12" duration="705.00" waitingTime="433.00" timeLoss="39.43" traveltime="272.00">
        <ride waitingTime="433.00" vehicle="t3" depart="808.00" arrival="1080.00" arrivalPos="192.98" duration="272.00" routeLength="2481.93" timeLoss="39.43"/>
    </personinfo>
    <personinfo id="p75" depart="422.00" type="DEFAULT_PEDTYPE" speedFactor="0.89" duration="658.00" waitingTime="386.00" timeLoss="39.43" traveltime="272.00">
        <ride waitingTime="386.00" vehicle="t3" depart="808.00" arrival="1080.00" arrivalPos="192.98" duration="272.00" routeLength="2481.93" timeLoss="39.43"/>
    </personinfo>
    <personinfo id="p72" depart="385.00" type="DEFAULT_PEDTYPE" speedFactor="0.96" duration="701.00" waitingTime="479.00" timeLoss="37.81" traveltime="222.00">
        <ride waitingTime="479.00" vehicle="t15" depart="864.00" arrival="1086.00" arrivalPos="192.98" duration="222.00" routeLength="1870.56" timeLoss="37.81"/>
    </personinfo>
    <personinfo id="p79" depart="433.00" type="DEFAULT_PEDTYPE" speedFactor="1.06" duration="664.00" waitingTime="455.00" timeLoss="42.38" traveltime="209.00">
        <ride waitingTime="455.00" vehicle="t18" depart="888.00" arrival="1097.00" arrivalPos="192.98" duration="209.00" routeLength="1418.16" timeLoss="42.38"/>
    </personinfo>
    <personinfo id="p63" depart="325.00" type="DEFAULT_PEDTYPE" speedFactor="0.83" duration="788.00" waitingTime="521.00" timeLoss="30.81" traveltime="267.00">
        <ride waitingTime="521.00" vehicle="t10" depart="846.00" arrival="1113.00" arrivalPos="192.98" duration="267.00" routeLength="2782.49" timeLoss="30.81"/>
    </personinfo>
    <personinfo id="p65" depart="331.00" type="DEFAULT_PEDTYPE" speedFactor="1.09" duration="783.00" waitingTime="515.00" timeLoss="30.81" traveltime="268.00">
        <ride waitingTime="515.00" vehicle="t10" depart="846.00" arrival="1114.00" arrivalPos="192.98" duration="268.00" routeLength="2782.49" timeLoss="30.81"/>
    </personinfo>
    <personinfo id="p35" depart="181.00" type="DEFAULT_PEDTYPE" speedFactor="0.94" duration="958.00" waitingTime="595.00" timeLoss="40.63" traveltime="363.00">
        <ride waitingTime="595.00" vehicle="t6" depart="776.00" arrival="1139.00" arrivalPos="192.98" duration="363.00" routeLength="4656.88" timeLoss="40.63"/>
    </personinfo>
    <personinfo id="p46" depart="235.00" type="DEFAULT_PEDTYPE" speedFactor="0.98" duration="927.00" waitingTime="454.00" timeLoss="56.86" traveltime="473.00">
        <ride waitingTime="454.00" vehicle="t7" depart="689.00" arrival="1162.00" arrivalPos="192.98" duration="473.00" routeLength="5370.56" timeLoss="56.86"/>
    </personinfo>
    <personinfo id="p53" depart="285.00" type="DEFAULT_PEDTYPE" speedFactor="1.02" duration="878.00" waitingTime="404.00" timeLoss="56.86" traveltime="474.00">
        <ride waitingTime="404.00" vehicle="t7" depart="689.00" arrival="1163.00" arrivalPos="192.98" duration="474.00" routeLength="5370.56" timeLoss="56.86"/>
    </personinfo>